# vtk DataFile Version 2.0
mesh-cube, Created by Gmsh
ASCII
DATASET UNSTRUCTURED_GRID
POINTS 232 double
-1 -1 -1
-1 1 -1
1 1 -1
1 -1 -1
-1 1 1
-1 -1 1
1 -1 1
1 1 1
-1 0.6000000000011096 -1
-1 0.2000000000022192 -1
-1 -0.1999999999977808 -1
-1 -0.5999999999988903 -1
1 0.6000000000011096 -1
1 0.2000000000022192 -1
1 -0.1999999999977808 -1
1 -0.5999999999988903 -1
-0.6000000000011096 1 -1
-0.2000000000022192 1 -1
0.1999999999977808 1 -1
0.5999999999988903 1 -1
-0.6000000000011096 -1 -1
-0.2000000000022192 -1 -1
0.1999999999977808 -1 -1
0.5999999999988903 -1 -1
-1 0.6000000000011096 1
-1 0.2000000000022192 1
-1 -0.1999999999977808 1
-1 -0.5999999999988903 1
-0.6000000000011096 -1 1
-0.2000000000022192 -1 1
0.1999999999977808 -1 1
0.5999999999988903 -1 1
1 -0.6000000000011096 1
1 -0.2000000000022192 1
1 0.1999999999977808 1
1 0.5999999999988903 1
0.6000000000011096 1 1
0.2000000000022192 1 1
-0.1999999999977808 1 1
-0.5999999999988903 1 1
-1 1 -0.6000000000011096
-1 1 -0.2000000000022192
-1 1 0.1999999999977808
-1 1 0.5999999999988903
-1 -1 -0.6000000000011096
-1 -1 -0.2000000000022192
-1 -1 0.1999999999977808
-1 -1 0.5999999999988903
1 -1 -0.6000000000011096
1 -1 -0.2000000000022192
1 -1 0.1999999999977808
1 -1 0.5999999999988903
1 1 -0.6000000000011096
1 1 -0.2000000000022192
1 1 0.1999999999977808
1 1 0.5999999999988903
-0.7352479131412011 -0.01216309653796865 -1
0.6554773173769215 0.00326920684941101 -1
-0.01940062075591342 -0.6706992988360609 -1
-0.02266982825556141 0.6725867751889516 -1
0.6614058261500264 0.3985036191305084 -1
0.3414688952185136 0.2076802449733789 -1
0.3510377848939499 -0.2004031818626189 -1
-0.03923048156767761 1.825167239566383e-09 -1
-0.3997728467803076 0.6612357129704405 -1
-0.3996310131162052 -0.661153826763563 -1
0.3782987571404233 -0.6293992256265917 -1
0.3672829777291686 0.6236206081661254 -1
-0.6269241093043558 -0.3684191790279308 -1
0.6819989227834713 -0.3889521466591361 -1
-0.6550307147031289 0.3718453721279313 -1
-0.2246666855609893 -0.3567469547833126 -1
-0.2213711619503375 0.3374451818253557 -1
-0.3648057122208932 -0.04620116259864959 -1
-0.7071796767846017 0.7071796757540891 -1
0.7071796771423979 -0.7071796771423979 -1
0.7071796771615784 0.7071796771621728 -1
-0.7071796773507694 -0.7071796783806872 -1
0.08359627296797489 -0.3793939425827968 -1
0.08359627175585471 0.3793939405333631 -1
-1 -0.01216309653796865 -0.7352479131412011
-1 0.00326920684941101 0.6554773173769215
-1 -0.6706992988360609 -0.01940062075591342
-1 0.6725867751889516 -0.02266982825556141
-1 0.3985036191305084 0.6614058261500264
-1 0.2076802449733789 0.3414688952185136
-1 -0.2004031818626189 0.3510377848939499
-1 1.825167239566383e-09 -0.03923048156767761
-1 0.6612357129704405 -0.3997728467803076
-1 -0.661153826763563 -0.3996310131162052
-1 -0.6293992256265917 0.3782987571404233
-1 0.6236206081661254 0.3672829777291686
-1 -0.3684191790279308 -0.6269241093043558
-1 -0.3889521466591361 0.6819989227834713
-1 0.3718453721279313 -0.6550307147031289
-1 -0.3567469547833126 -0.2246666855609893
-1 0.3374451818253557 -0.2213711619503375
-1 -0.04620116259864959 -0.3648057122208932
-1 0.7071796757540891 -0.7071796767846017
-1 -0.7071796771423979 0.7071796771423979
-1 0.7071796771621728 0.7071796771615784
-1 -0.7071796783806872 -0.7071796773507694
-1 -0.3793939425827968 0.08359627296797489
-1 0.3793939405333631 0.08359627175585471
0.01216309653796865 -1 -0.7352479131412011
-0.00326920684941101 -1 0.6554773173769215
0.6706992988360609 -1 -0.01940062075591342
-0.6725867751889516 -1 -0.02266982825556141
-0.3985036191305084 -1 0.6614058261500264
-0.2076802449733789 -1 0.3414688952185136
0.2004031818626189 -1 0.3510377848939499
-1.825167239566383e-09 -1 -0.03923048156767761
-0.6612357129704405 -1 -0.3997728467803076
0.661153826763563 -1 -0.3996310131162052
0.6293992256265917 -1 0.3782987571404233
-0.6236206081661254 -1 0.3672829777291686
0.3684191790279308 -1 -0.6269241093043558
0.3889521466591361 -1 0.6819989227834713
-0.3718453721279313 -1 -0.6550307147031289
0.3567469547833126 -1 -0.2246666855609893
-0.3374451818253557 -1 -0.2213711619503375
0.04620116259864959 -1 -0.3648057122208932
-0.7071796757540891 -1 -0.7071796767846017
0.7071796771423979 -1 0.7071796771423979
-0.7071796771621728 -1 0.7071796771615784
0.7071796783806872 -1 -0.7071796773507694
0.3793939425827968 -1 0.08359627296797489
-0.3793939405333631 -1 0.08359627175585471
1 -0.6706992979532163 0.01940062117982966
1 0.6725867765015052 0.02266982851251331
1 0.003269207363985283 -0.6554773162735654
1 0.0121630974031135 0.735247913732707
1 0.3985036192692002 -0.6614058245892864
1 0.2076802461030129 -0.3414688946983594
1 -0.200403179631103 -0.3510377839773305
1 -1.819917994083653e-09 0.03923048156695041
1 -0.6293992236411197 -0.3782987563940915
1 -0.6611538234195657 0.3996310117080686
1 0.6612357143585501 0.3997728467826049
1 0.3684308770634219 0.626944371196031
1 0.6236206090163805 -0.3672829768271513
1 -0.3718423263198196 0.6550254405343772
1 -0.3889521443557737 -0.6819989221822376
1 0.3570771318236208 0.2252385696182224
1 -0.3370456505228385 0.2293502410037254
1 0.04623345966087866 0.3651773432977463
1 -0.7071796756416786 0.7071796756410842
1 -0.7071796755652746 -0.7071796765963818
1 0.7071796767667815 -0.7071796757362687
1 0.7071796771423979 0.7071796771423979
1 0.3793939441621945 -0.08359627274394588
1 -0.3793939401327555 -0.08359627186372243
-0.7352479139371233 1 0.01216309717726682
0.6554773166741168 1 -0.003269206669839875
-0.01940062117088259 1 0.6706992997432715
-0.02266982913511084 1 -0.6725867757792194
0.6614058261318174 1 -0.3985036191446858
0.3414688948474214 1 -0.207680244474325
0.3510377845731907 1 0.2004031827779442
-0.03923048180820277 1 1.505770841347953e-09
0.3782987570226217 1 0.6293992266798458
-0.399631011683816 1 0.661153826303666
-0.3997728468652508 1 -0.6612357128191493
0.6819989230888388 1 0.3889521473143471
-0.6269241087637665 1 0.3684191791930316
0.3672829767147587 1 -0.6236206087680471
-0.6550307156524389 1 -0.3718453728031127
-0.2213711627175423 1 -0.3374451816033657
-0.224666685633079 1 0.3567469561832015
-0.3648057125736826 1 0.04620116396249685
-0.7071796760187372 1 0.7071796760187372
-0.7071796767667815 1 -0.7071796757362687
0.7071796747233587 1 -0.7071796767849787
0.7071796773507693 1 0.7071796773501748
0.08359627498408173 1 0.3793939455661661
0.08359627141693249 1 -0.3793939432522385
1.920743564198801e-09 -0.6535898402273326 1
0.01610396908108541 0.7329829410355084 1
0.6744896883984701 0.01933580753426691 1
-0.6725867755110664 0.02266982640928497 1
-0.3983050506443245 -0.6612911818707972 1
-0.2071022804451057 -0.3411352105029397 1
0.2062188145894963 -0.3455371210324905 1
6.566013011077843e-09 0.0392304832694092 1
0.3695301754726739 0.6238179921065369 1
-0.6612357128749369 0.399772846631578 1
0.3990591224181177 -0.6607549303045207 1
0.6355315227692981 -0.3717313064636049 1
0.6767384641400711 0.3884553913444469 1
-0.6235096747415627 -0.3672189305324804 1
-0.3682198097979917 0.6509592021410007 1
-0.3367552710536943 0.2292410418590631 1
0.3601938992447355 0.222249381370558 1
0.04682303156225393 0.3646326075403591 1
-0.707179674742338 -0.7071796747417434 1
0.7071796760083782 0.7071796770382961 1
0.7071796752992181 -0.707179676330325 1
-0.7071796749404005 0.7071796804542536 1
-0.3793939397937249 -0.08359627200557712 1
0.3795004506185125 -0.0837535450495408 1
-2.61945326540669e-12 9.34730071122658e-12 6.640734965367185e-11
-0.3720294860723952 -0.3735410638292462 -0.3720294860723953
0.3706585174651179 0.3769740341218293 0.3722760337432619
-0.3758787790743094 0.3720305419579236 0.3711139547843176
0.283430848366271 0.4000092148732628 -0.4000092148544458
-0.4000092145683982 -0.4000092150267779 0.2834308481632659
0.2882649894011657 -0.3959064351423544 -0.4011616681665831
0.3704652537616878 -0.3759300122564568 0.3746663711493187
-0.3729991819734108 0.3729991818097458 -0.3729991819734107
0.5062119830211503 0.00301065667864471 -0.1387305856775244
-0.101571320088801 -0.04283553395090539 0.5024499748069235
-0.002956406716410453 0.5006535340134708 0.05749963768808728
-0.03468725590685 -0.02535986545244737 -0.4994087176015043
-0.5006972533685841 0.0569595366852713 -0.001841982772204223
0.03531769177541808 -0.5015888640510533 0.0208855108382297
0.5493859054359183 0.539896063281894 -0.03446348529098045
0.546686281083258 -0.5428884770222048 -0.03223143338741771
-0.5674773357105068 -0.000777423613174566 -0.5674773357105068
0.5766652686941799 0.001022069818236115 0.5476427066057838
-0.03531386848909954 -0.5439848679567332 0.5436988095380935
-0.004086029928235185 0.5488715846612526 0.57806693517818
-0.5498855566126745 0.5789495643761914 -0.001352839616848574
-0.5532709841863794 -0.004449449706191357 0.5597524166412494
0.6137441684480591 -0.1965601044766099 -0.6137441699706503
-0.05735307682944668 -0.6017345516171253 -0.5706454845214963
0.611783477337337 0.2296695346784347 -0.6117834774969135
-0.5818058448535111 -0.5819286044934571 -0.06053737917632694
-0.06085406887885352 0.5817791600801483 -0.581779160019015
-0.5634345759590524 -0.6122663322081844 0.6123464954745108
0.6148301173144961 -0.614830118571853 -0.5637818418895232
-0.6277433498753207 -0.6276835586774088 -0.5618582744878857
-0.6285422132562563 0.5612014742155231 0.627918247439097

CELLS 1096 5084
3 0 77 11
3 20 77 0
3 8 74 1
3 1 74 16
3 2 76 12
3 19 76 2
3 15 75 3
3 3 75 23
3 9 70 8
3 70 74 8
3 10 56 9
3 56 70 9
3 11 68 10
3 10 68 56
3 11 77 68
3 12 60 13
3 12 76 60
3 13 57 14
3 13 60 57
3 14 69 15
3 57 69 14
3 69 75 15
3 16 64 17
3 16 74 64
3 17 59 18
3 17 64 59
3 18 67 19
3 59 67 18
3 67 76 19
3 21 65 20
3 65 77 20
3 22 58 21
3 58 65 21
3 23 66 22
3 22 66 58
3 23 75 66
3 68 73 56
3 56 73 70
3 60 61 57
3 61 62 57
3 62 69 57
3 58 71 65
3 66 78 58
3 58 78 71
3 64 72 59
3 59 79 67
3 72 79 59
3 60 67 61
3 60 76 67
3 61 63 62
3 61 79 63
3 67 79 61
3 63 78 62
3 66 69 62
3 62 78 66
3 63 73 71
3 71 78 63
3 72 73 63
3 63 79 72
3 70 72 64
3 64 74 70
3 65 71 68
3 68 77 65
3 66 75 69
3 71 73 68
3 70 73 72
[...]
CELL_DATA 1096
SCALARS CellEntityIds int 1
LOOKUP_TABLE default
4
4
4
4
4
4
4
4
4
4
4
4
4
4
4
4
4
4
4
4
4
4
4
4
4
4
4
4
4
4
4
4
4
4
4
4
4
4
4
4
4
4
4
4
4
4
4
4
4
4
4
4
4
4
4
4
4
4
4
4
4
4
4
4
4
4
0
0
0
0
0
0
0
0
0
0
0
0
0
0
0
0
0
0
0
0
0
0
0
0
0
0
0
0
0
0
0
0
0
0
0
0
0
0
0
0
0
0
0
0
0
0
0
0
0
0
0
0
0
0
0
0
0
0
0
0
0
0
0
0
0
0
2
2
2
2
2
2
2
2
2
2
2
2
2
2
2
2
2
2
2
2
2
2
2
2
2
2
2
2
2
2
2
2
2
2
2
2
2
2
2
2
2
2
2
2
2
2
2
2
2
2
2
2
2
2
2
2
2
2
2
2
2
2
2
2
2
2
1
1
1
1
1
1
1
1
1
1
1
1
1
1
1
1
1
1
1
1
1
1
1
1
1
1
1
1
1
1
1
1
1
1
1
1
1
1
1
1
1
1
1
1
1
1
1
1
1
1
1
1
1
1
1
1
1
1
1
1
1
1
1
1
1
1
3
3
3
3
3
3
3
3
3
3
3
3
3
3
3
3
3
3
3
3
3
3
3
3
3
3
3
3
3
3
3
3
3
3
3
3
3
3
3
3
3
3
3
3
3
3
3
3
3
3
3
3
3
3
3
3
3
3
3
3
3
3
3
3
3
3
5
5
5
5
5
5
5
5
5
5
5
5
5
5
5
5
5
5
5
5
5
5
5
5
5
5
5
5
5
5
5
5
5
5
5
5
5
5
5
5
5
5
5
5
5
5
5
5
5
5
5
5
5
5
5
5
5
5
5
5
5
5
5
5
5
5
10
10
10
10
10
10
10
10
10
10
10
10
10
10
10
10
10
10
10
10
10
10
10
10
10
10
10
10
10
10
10
10
10
10
10
10
10
10
10
10
10
10
10
10
10
10
10
10
10
10
10
10
10
10
10
10
10
10
10
10
10
10
10
10
10
10
10
10
10
10
10
10
10
10
10
10
10
10
10
10
10
10
10
10
10
10
10
10
10
10
10
10
10
10
10
10
10
10
10
10
10
10
10
10
10
10
10
10
10
10
10
10
10
10
10
10
10
10
10
10
10
10
10
10
10
10
10
10
10
10
10
10
10
10
10
10
10
10
10
10
10
10
10
10
10
10
10
10
10
10
10
10
10
10
10
10
10
10
10
10
10
10
10
10
10
10
10
10
10
10
10
10
10
10
10
10
10
10
10
10
10
10
10
10
10
10
10
10
10
10
10
10
10
10
10
10
10
10
10
10
10
10
10
10
10
10
10
10
10
10
10
10
10
10
10
10
10
10
10
10
10
10
10
10
10
10
10
10
10
10
10
10
10
10
10
10
10
10
10
10
10
10
10
10
10
10
10
10
10
10
10
10
10
10
10
10
10
10
10
10
10
10
10
10
10
10
10
10
10
10
10
10
10
10
10
10
10
10
10
10
10
10
10
10
10
10
10
10
10
10
10
10
10
10
10
10
10
10
10
10
10
10
10
10
10
10
10
10
10
10
10
10
10
10
10
10
10
10
10
10
10
10
10
10
10
10
10
10
10
10
10
10
10
10
10
10
10
10
10
10
10
10
10
10
10
10
10
10
10
10
10
10
10
10
10
10
10
10
10
10
10
10
10
10
10
10
10
10
10
10
10
10
10
10
10
10
10
10
10
10
10
10
10
10
10
10
10
10
10
10
10
10
10
10
10
10
10
10
10
10
10
10
10
10
10
10
10
10
10
10
10
10
10
10
10
10
10
10
10
10
10
10
10
10
10
10
10
10
10
10
10
10
10
10
10
10
10
10
10
10
10
10
10
10
10
10
10
10
10
10
10
10
10
10
10
10
10
10
10
10
10
10
10
10
10
10
10
10
10
10
10
10
10
10
10
10
10
10
10
10
10
10
10
10
10
10
10
10
10
10
10
10
10
10
10
10
10
10
10
10
10
10
10
10
10
10
10
10
10
10
10
10
10
10
10
10
10
10
10
10
10
10
10
10
10
10
10
10
10
10
10
10
10
10
10
10
10
10
10
10
10
10
10
10
10
10
10
10
10
10
10
10
10
10
10
10
10
10
10
10
10
10
10
10
10
10
10
10
10
10
10
10
10
10
10
10
10
10
10
10
10
10
10
10
10
10
10
10
10
10
10
10
10
10
10
10
10
10
10
10
10
10
10
10
10
10
10
10
10
10
10
10
10
10
10
10
10
10
10
10
10
10
10
10
10
10
10
10
10
10
10
10
10
10
10
10
10
10
10
10
10
10
10
10
10
10
10
10
10
10
10
10
10
10
10
10
10
10
10
10
10
10
10
10
10
10
10
10
10
10
10
10
10
10
10
10
10
10
10
10
10
10
10
10
10
10
10
10
10
10
10
10
10
10
10
10
10
10
10
10
